
variables = "r", "B(r) ", "Uncertainty"
zone T = "State 1 B(r)   2p3rRe              "

    0.001200    8.1780285129037D+01     0.0
    0.007200    8.1780234861336D+01     0.0
    0.013200    8.1779974169922D+01     0.0
    0.019200    8.1779327699765D+01     0.0
    0.025200    8.1778120095969D+01     0.0
    0.031200    8.1776176009311D+01     0.0
    0.037200    8.1773320105380D+01     0.0
    0.043200    8.1769377077313D+01     0.0
    0.049200    8.1764171662125D+01     0.0
    0.055200    8.1757528660643D+01     0.0
    0.061200    8.1749272961026D+01     0.0
    0.067200    8.1739229565883D+01     0.0
    0.073200    8.1727223622985D+01     0.0
    0.079200    8.1713080459550D+01     0.0
    0.085200    8.1696625620120D+01     0.0
    0.091200    8.1677684907998D+01     0.0
    0.097200    8.1656084430247D+01     0.0
    0.103200    8.1631650646244D+01     0.0
    0.109200    8.1604210419754D+01     0.0
    0.115200    8.1573591074533D+01     0.0
    0.121200    8.1539620453415D+01     0.0
    0.127200    8.1502126980875D+01     0.0
    0.133200    8.1460939729044D+01     0.0
    0.139200    8.1415888487128D+01     0.0
    0.145200    8.1366803834219D+01     0.0
    0.151200    8.1313517215451D+01     0.0
    0.157200    8.1255861021452D+01     0.0
    0.163200    8.1193668671069D+01     0.0
    0.169200    8.1126774697291D+01     0.0
    0.175200    8.1055014836335D+01     0.0
    0.181200    8.0978226119830D+01     0.0
    0.187200    8.0896246970029D+01     0.0
    0.193200    8.0808917297999D+01     0.0
    0.199200    8.0716078604691D+01     0.0
    0.205200    8.0617574084833D+01     0.0
    0.211200    8.0513248733554D+01     0.0
    0.217200    8.0402949455644D+01     0.0
    0.223200    8.0286525177364D+01     0.0
    0.229200    8.0163826960702D+01     0.0
    0.235200    8.0034708119966D+01     0.0
    0.241200    7.9899024340611D+01     0.0
    0.247200    7.9756633800162D+01     0.0
    0.253200    7.9607397291138D+01     0.0
    0.259200    7.9451178345816D+01     0.0
    0.265200    7.9287843362722D+01     0.0
    0.271200    7.9117261734693D+01     0.0
    0.277200    7.8939305978371D+01     0.0
    0.283200    7.8753851864963D+01     0.0
    0.289200    7.8560778552116D+01     0.0
    0.295200    7.8359968716737D+01     0.0
    0.301200    7.8151308688583D+01     0.0
    0.307200    7.7934688584446D+01     0.0
    0.313200    7.7710002442741D+01     0.0
    0.319200    7.7477148358323D+01     0.0
    0.325200    7.7236028617311D+01     0.0
    0.331200    7.6986549831744D+01     0.0
    0.337200    7.6728623073846D+01     0.0
    0.343200    7.6462164009696D+01     0.0
    0.349200    7.6187093032073D+01     0.0
    0.355200    7.5903335392278D+01     0.0
    0.361200    7.5610821330685D+01     0.0
    0.367200    7.5309486205796D+01     0.0
    0.373200    7.4999270621579D+01     0.0
    0.379200    7.4680120552828D+01     0.0
    0.385200    7.4351987468327D+01     0.0
    0.391200    7.4014828451556D+01     0.0
    0.397200    7.3668606318705D+01     0.0
    0.403200    7.3313289733731D+01     0.0
    0.409200    7.2948853320232D+01     0.0
    0.415200    7.2575277769856D+01     0.0
    0.421200    7.2192549947015D+01     0.0
    0.427200    7.1800662989635D+01     0.0
    0.433200    7.1399616405698D+01     0.0
    0.439200    7.0989416165315D+01     0.0
    0.445200    7.0570074788079D+01     0.0
    0.451200    7.0141611425448D+01     0.0
    0.457200    6.9704051937909D+01     0.0
    0.463200    6.9257428966667D+01     0.0
    0.469200    6.8801781999634D+01     0.0
    0.475200    6.8337157431450D+01     0.0
    0.481200    6.7863608617324D+01     0.0
    0.487200    6.7381195920452D+01     0.0
    0.493200    6.6889986752788D+01     0.0
    0.499200    6.6390055608938D+01     0.0
    0.500000    6.6322743430870D+01  2.966D+01
    0.560000    6.0854423060823D+01  2.738D+01
    0.620000    5.4650550116539D+01  2.476D+01
    0.680000    4.7899899178511D+01  2.190D+01
    0.740000    4.0847169090118D+01  1.888D+01
    0.800000    3.3773100368628D+01  1.582D+01
    0.860000    2.6967824368573D+01  1.284D+01
    0.920000    2.0700822849357D+01  1.004D+01
    0.980000    1.5192043949007D+01  7.534D+00
    1.040000    1.0589027494059D+01  5.386D+00
    1.100000    6.9541236163099D+00  3.636D+00
    1.160000    4.2641075816948D+00  2.289D+00
    1.220000    2.4220665100977D+00  1.319D+00
    1.280000    1.2789509781705D+00  6.743D-01
    1.340000    6.6029754310942D-01  2.888D-01
    1.400000    3.9284497586977D-01  9.363D-02
    1.460000    3.2627846501978D-01  3.425D-02
    1.520000    3.4694209976331D-01  3.856D-02
    1.580000    3.8253496294722D-01  5.048D-02
    1.640000    3.9888943506356D-01  6.585D-02
    1.700000    3.9136507012515D-01  7.543D-02
    1.760000    3.7390767776798D-01  7.761D-02
    1.820000    3.6848666706020D-01  7.777D-02
    1.880000    3.9674456509762D-01  8.108D-02
    1.940000    4.7465964790137D-01  8.631D-02
    2.000000    6.1015054002802D-01  8.785D-02
    2.060000    8.0300275230428D-01  8.136D-02
    2.120000    1.0462847039961D+00  6.728D-02
    2.180000    1.3284628658623D+00  5.638D-02
    2.240000    1.6356085932710D+00  7.230D-02
    2.300000    1.9533135058587D+00  1.158D-01
    2.360000    2.2681310525579D+00  1.726D-01
    2.420000    2.5685094407934D+00  2.350D-01
    2.480000    2.8452711884653D+00  2.987D-01
    2.540000    3.0917369060727D+00  3.609D-01
    2.600000    3.3036000470138D+00  4.195D-01
    2.660000    3.4786490405688D+00  4.730D-01
    2.720000    3.6164140229105D+00  5.204D-01
    2.780000    3.7177942628642D+00  5.612D-01
    2.840000    3.7847032331625D+00  5.953D-01
    2.900000    3.8197528071760D+00  6.227D-01
    2.960000    3.8259866050200D+00  6.437D-01
    3.020000    3.8066646832487D+00  6.587D-01
    3.080000    3.7650968684849D+00  6.683D-01
    3.140000    3.7045193361655D+00  6.729D-01
    3.200000    3.6280078677028D+00  6.731D-01
    3.260000    3.5384210470850D+00  6.695D-01
    3.320000    3.4383670792817D+00  6.627D-01
    3.380000    3.3301886439309D+00  6.531D-01
    3.440000    3.2159610497140D+00  6.412D-01
    3.500000    3.0974998098236D+00  6.275D-01
    3.560000    2.9763745499104D+00  6.123D-01
    3.620000    2.8539268539615D+00  5.959D-01
    3.680000    2.7312902397425D+00  5.788D-01
    3.740000    2.6094109359034D+00  5.610D-01
    3.800000    2.4890685169001D+00  5.429D-01
    3.860000    2.3708957520889D+00  5.246D-01
    3.920000    2.2553972550811D+00  5.063D-01
    3.980000    2.1429666915013D+00  4.882D-01
    4.040000    2.0339024291935D+00  4.702D-01
    4.100000    1.9284216045756D+00  4.526D-01
    4.160000    1.8266726405509D+00  4.354D-01
    4.220000    1.7287462919064D+00  4.186D-01
    4.280000    1.6346853188843D+00  4.024D-01
    4.340000    1.5444929028588D+00  3.866D-01
    4.400000    1.4581399230895D+00  3.715D-01
    4.460000    1.3755712128754D+00  3.568D-01
    4.520000    1.2967109090027D+00  3.428D-01
    4.580000    1.2214670015584D+00  3.293D-01
    4.640000    1.1497351830090D+00  3.164D-01
    4.700000    1.0814020866420D+00  3.040D-01
    4.760000    1.0163479955459D+00  2.922D-01
    4.820000    9.5444909461370D-01  2.810D-01
    4.880000    8.9557932980355D-01  2.703D-01
    4.940000    8.3961193122045D-01  2.601D-01
    5.000000    7.8642064955366D-01  2.504D-01
    5.060000    7.3588074904214D-01  2.411D-01
    5.120000    6.8786979443630D-01  2.323D-01
    5.180000    6.4226826434900D-01  2.240D-01
    5.240000    5.9896001890465D-01  2.161D-01
    5.300000    5.5783264565381D-01  2.086D-01
    5.360000    5.1877770427369D-01  2.015D-01
    5.420000    4.8169088757231D-01  1.948D-01
    5.480000    4.4647211370890D-01  1.885D-01
    5.540000    4.1302556228856D-01  1.824D-01
    5.600000    3.8125966504567D-01  1.767D-01
    5.660000    3.5108706015823D-01  1.713D-01
    5.720000    3.2242451780021D-01  1.662D-01
    5.780000    2.9519284331076D-01  1.614D-01
    5.840000    2.6931676331005D-01  1.569D-01
    5.900000    2.4472479919656D-01  1.526D-01
    5.960000    2.2134913170081D-01  1.485D-01
    6.020000    1.9912545952418D-01  1.447D-01
    6.080000    1.7799285454478D-01  1.411D-01
    6.140000    1.5789361561085D-01  1.376D-01
    6.200000    1.3877312255186D-01  1.344D-01
    6.260000    1.2057969171047D-01  1.314D-01
    6.320000    1.0326443402372D-01  1.285D-01
    6.380000    8.6781116451935D-02  1.258D-01
    6.440000    7.1086027362927D-02  1.233D-01
    6.500000    5.6137846319589D-02  1.209D-01
    6.560000    4.1897518588321D-02  1.186D-01
    6.620000    2.8328134576959D-02  1.165D-01
    6.680000    1.5394814323370D-02  1.144D-01
    6.740000    3.0645970832546D-03  1.125D-01
    6.800000   -8.6936639913898D-03  1.107D-01
    6.860000   -1.9909402138277D-02  1.090D-01
    6.920000   -3.0610432326521D-02  1.075D-01
    6.980000   -4.0823041773271D-02  1.060D-01
    7.040000   -5.0572075776165D-02  1.045D-01
    7.100000   -5.9881019017923D-02  1.032D-01
    7.160000   -6.8772072510431D-02  1.019D-01
    7.220000   -7.7266226352887D-02  1.007D-01
    7.280000   -8.5383328482922D-02  9.961D-02
    7.340000   -9.3142149600654D-02  9.855D-02
    7.400000   -1.0056044444567D-01  9.755D-02
    7.460000   -1.0765500960438D-01  9.660D-02
    7.520000   -1.1444173802235D-01  9.570D-02
    7.580000   -1.2093567039106D-01  9.486D-02
    7.640000   -1.2715104357447D-01  9.406D-02
    7.700000   -1.3310133623413D-01  9.330D-02
    7.760000   -1.3879931180622D-01  9.258D-02
    7.820000   -1.4425705897749D-01  9.191D-02
    7.880000   -1.4948602980038D-01  9.127D-02
    7.940000   -1.5449707558169D-01  9.066D-02
    8.000000   -1.5930048067212D-01  9.008D-02
    8.060000   -1.6390599427830D-01  8.954D-02
    8.120000   -1.6832286041241D-01  8.902D-02
    8.180000   -1.7255984608811D-01  8.853D-02
    8.240000   -1.7662526786654D-01  8.807D-02
    8.300000   -1.8052701684962D-01  8.763D-02
    8.360000   -1.8427258221284D-01  8.721D-02
    8.420000   -1.8786907336462D-01  8.681D-02
    8.480000   -1.9132324081404D-01  8.643D-02
    8.540000   -1.9464149582435D-01  8.608D-02
    8.600000   -1.9782992892479D-01  8.573D-02
    8.660000   -2.0089432734939D-01  8.541D-02
    8.720000   -2.0384019146694D-01  8.510D-02
    8.780000   -2.0667275026270D-01  8.481D-02
    8.840000   -2.0939697592901D-01  8.452D-02
    8.900000   -2.1201759761778D-01  8.426D-02
    8.960000   -2.1453911440570D-01  8.400D-02
    9.020000   -2.1696580751886D-01  8.376D-02
    9.080000   -2.1930175186140D-01  8.353D-02
    9.140000   -2.2155082688968D-01  8.331D-02
    9.200000   -2.2371672687112D-01  8.310D-02
    9.260000   -2.2580297056420D-01  8.290D-02
    9.320000   -2.2781291035438D-01  8.270D-02
    9.380000   -2.2974974087794D-01  8.252D-02
    9.440000   -2.3161650716425D-01  8.234D-02
    9.500000   -2.3341611232487D-01  8.217D-02
    9.560000   -2.3515132481625D-01  8.201D-02
    9.620000   -2.3682478530120D-01  8.186D-02
    9.680000   -2.3843901313242D-01  8.171D-02
    9.740000   -2.3999641248054D-01  8.157D-02
    9.800000   -2.4149927812719D-01  8.143D-02
    9.860000   -2.4294980094268D-01  8.130D-02
    9.920000   -2.4435007306654D-01  8.118D-02
    9.980000   -2.4570209280836D-01  8.106D-02
   10.059200   -2.4741609829732D-01     0.0
   10.119200   -2.4866338176516D-01     0.0
   10.179200   -2.4986843152627D-01     0.0
   10.239200   -2.5103289077047D-01     0.0
   10.299200   -2.5215833084441D-01     0.0
   10.359200   -2.5324625471921D-01     0.0
   10.419200   -2.5429810027605D-01     0.0
   10.479200   -2.5531524342005D-01     0.0
   10.539200   -2.5629900103201D-01     0.0
   10.599200   -2.5725063376711D-01     0.0
   10.659200   -2.5817134870895D-01     0.0
   10.719200   -2.5906230188735D-01     0.0
   10.779200   -2.5992460066691D-01     0.0
   10.839200   -2.6075930601390D-01     0.0
   10.899200   -2.6156743464791D-01     0.0
   10.959200   -2.6234996108466D-01     0.0
   11.019200   -2.6310781957588D-01     0.0
   11.079200   -2.6384190595192D-01     0.0
   11.139200   -2.6455307937214D-01     0.0
   11.199200   -2.6524216398832D-01     0.0
   11.259200   -2.6590995052562D-01     0.0
   11.319200   -2.6655719778545D-01     0.0
   11.379200   -2.6718463407455D-01     0.0
   11.439200   -2.6779295856407D-01     0.0
   11.499200   -2.6838284258245D-01     0.0
   11.559200   -2.6895493084548D-01     0.0
   11.619200   -2.6950984262700D-01     0.0
   11.679200   -2.7004817287309D-01     0.0
   11.739200   -2.7057049326301D-01     0.0
   11.799200   -2.7107735321937D-01     0.0
   11.859200   -2.7156928087027D-01     0.0
   11.919200   -2.7204678396601D-01     0.0
   11.979200   -2.7251035075237D-01     0.0
   12.039200   -2.7296045080303D-01     0.0
   12.099200   -2.7339753581302D-01     0.0
   12.159200   -2.7382204035517D-01     0.0
   12.219200   -2.7423438260152D-01     0.0
   12.279200   -2.7463496501134D-01     0.0
   12.339200   -2.7502417498761D-01     0.0
   12.399200   -2.7540238550322D-01     0.0
   12.459200   -2.7576995569884D-01     0.0
   12.519200   -2.7612723145340D-01     0.0
   12.579200   -2.7647454592884D-01     0.0
   12.639200   -2.7681222009032D-01     0.0
   12.699200   -2.7714056320303D-01     0.0
   12.759200   -2.7745987330677D-01     0.0
   12.819200   -2.7777043766940D-01     0.0
   12.879200   -2.7807253322026D-01     0.0
   12.939200   -2.7836642696427D-01     0.0
   12.999200   -2.7865237637798D-01     0.0
   13.059200   -2.7893062978810D-01     0.0
   13.119200   -2.7920142673362D-01     0.0
   13.179200   -2.7946499831214D-01     0.0
   13.239200   -2.7972156751119D-01     0.0
   13.299200   -2.7997134952528D-01     0.0
   13.359200   -2.8021455205925D-01     0.0
   13.419200   -2.8045137561879D-01     0.0
   13.479200   -2.8068201378840D-01     0.0
   13.539200   -2.8090665349764D-01     0.0
   13.599200   -2.8112547527609D-01     0.0
   13.659200   -2.8133865349758D-01     0.0
   13.719200   -2.8154635661416D-01     0.0
   13.779200   -2.8174874738029D-01     0.0
   13.839200   -2.8194598306765D-01     0.0
   13.899200   -2.8213821567110D-01     0.0
   13.959200   -2.8232559210610D-01     0.0
   14.019200   -2.8250825439801D-01     0.0
   14.079200   -2.8268633986357D-01     0.0
   14.139200   -2.8285998128506D-01     0.0
   14.199200   -2.8302930707726D-01     0.0
   14.259200   -2.8319444144773D-01     0.0
   14.319200   -2.8335550455061D-01     0.0
   14.379200   -2.8351261263417D-01     0.0
   14.439200   -2.8366587818245D-01     0.0
   14.499200   -2.8381541005130D-01     0.0
   14.559200   -2.8396131359899D-01     0.0
   14.619200   -2.8410369081157D-01     0.0
   14.679200   -2.8424264042334D-01     0.0
   14.739200   -2.8437825803265D-01     0.0
   14.799200   -2.8451063621297D-01     0.0
   14.859200   -2.8463986461980D-01     0.0
   14.919200   -2.8476603009329D-01     0.0
   14.979200   -2.8488921675705D-01     0.0
   15.039200   -2.8500950611289D-01     0.0
   15.099200   -2.8512697713214D-01     0.0
   15.159200   -2.8524170634338D-01     0.0
   15.219200   -2.8535376791676D-01     0.0
   15.279200   -2.8546323374527D-01     0.0
   15.339200   -2.8557017352267D-01     0.0
   15.399200   -2.8567465481882D-01     0.0
   15.459200   -2.8577674315181D-01     0.0
   15.519200   -2.8587650205762D-01     0.0
   15.579200   -2.8597399315711D-01     0.0
   15.639200   -2.8606927622050D-01     0.0
   15.699200   -2.8616240922949D-01     0.0
   15.759200   -2.8625344843699D-01     0.0
   15.819200   -2.8634244842476D-01     0.0
   15.879200   -2.8642946215889D-01     0.0
   15.939200   -2.8651454104323D-01     0.0
   15.999200   -2.8659773497084D-01     0.0
   16.059200   -2.8667909237372D-01     0.0
   16.119200   -2.8675866027048D-01     0.0
   16.179200   -2.8683648431258D-01     0.0
   16.239200   -2.8691260882866D-01     0.0
   16.299200   -2.8698707686746D-01     0.0
   16.359200   -2.8705993023904D-01     0.0
   16.419200   -2.8713120955473D-01     0.0
   16.479200   -2.8720095426547D-01     0.0
   16.539200   -2.8726920269888D-01     0.0
   16.599200   -2.8733599209509D-01     0.0
   16.659200   -2.8740135864115D-01     0.0
   16.719200   -2.8746533750438D-01     0.0
   16.779200   -2.8752796286449D-01     0.0
   16.839200   -2.8758926794458D-01     0.0
   16.899200   -2.8764928504110D-01     0.0
   16.959200   -2.8770804555274D-01     0.0
   17.019200   -2.8776558000835D-01     0.0
   17.079200   -2.8782191809385D-01     0.0
   17.139200   -2.8787708867831D-01     0.0
   17.199200   -2.8793111983908D-01     0.0
   17.259200   -2.8798403888604D-01     0.0
   17.319200   -2.8803587238511D-01     0.0
   17.379200   -2.8808664618089D-01     0.0
   17.439200   -2.8813638541859D-01     0.0
   17.499200   -2.8818511456515D-01     0.0
   17.559200   -2.8823285742984D-01     0.0
   17.619200   -2.8827963718382D-01     0.0
   17.679200   -2.8832547637950D-01     0.0
   17.739200   -2.8837039696889D-01     0.0
   17.799200   -2.8841442032150D-01     0.0
   17.859200   -2.8845756724169D-01     0.0
   17.919200   -2.8849985798532D-01     0.0
   17.979200   -2.8854131227601D-01     0.0
   18.039200   -2.8858194932069D-01     0.0
   18.099200   -2.8862178782488D-01     0.0
   18.159200   -2.8866084600719D-01     0.0
   18.219200   -2.8869914161362D-01     0.0
   18.279200   -2.8873669193124D-01     0.0
   18.339200   -2.8877351380143D-01     0.0
   18.399200   -2.8880962363283D-01     0.0
   18.459200   -2.8884503741372D-01     0.0
   18.519200   -2.8887977072406D-01     0.0
   18.579200   -2.8891383874723D-01     0.0
   18.639200   -2.8894725628129D-01     0.0
   18.699200   -2.8898003774988D-01     0.0
   18.759200   -2.8901219721295D-01     0.0
   18.819200   -2.8904374837688D-01     0.0
   18.879200   -2.8907470460453D-01     0.0
   18.939200   -2.8910507892484D-01     0.0
   18.999200   -2.8913488404219D-01     0.0
   19.059200   -2.8916413234545D-01     0.0
   19.119200   -2.8919283591672D-01     0.0
   19.179200   -2.8922100653989D-01     0.0
   19.239200   -2.8924865570884D-01     0.0
   19.299200   -2.8927579463542D-01     0.0
   19.359200   -2.8930243425725D-01     0.0
   19.419200   -2.8932858524521D-01     0.0
   19.479200   -2.8935425801068D-01     0.0
   19.539200   -2.8937946271267D-01     0.0
   19.599200   -2.8940420926464D-01     0.0
   19.659200   -2.8942850734115D-01     0.0
   19.719200   -2.8945236638430D-01     0.0
   19.779200   -2.8947579560999D-01     0.0
   19.839200   -2.8949880401400D-01     0.0
   19.899200   -2.8952140037787D-01     0.0
   19.959200   -2.8954359327460D-01     0.0
   20.019200   -2.8956539107422D-01     0.0
   20.079200   -2.8958680194919D-01     0.0
   20.139200   -2.8960783387953D-01     0.0
   20.199200   -2.8962849465802D-01     0.0
   20.259200   -2.8964879189503D-01     0.0
   20.319200   -2.8966873302334D-01     0.0
   20.379200   -2.8968832530282D-01     0.0
   20.439200   -2.8970757582480D-01     0.0
   20.499200   -2.8972649151665D-01     0.0
   20.559200   -2.8974507914584D-01     0.0
   20.619200   -2.8976334532420D-01     0.0
   20.679200   -2.8978129651189D-01     0.0
   20.739200   -2.8979893902127D-01     0.0
   20.799200   -2.8981627902072D-01     0.0
   20.859200   -2.8983332253833D-01     0.0
   20.919200   -2.8985007546542D-01     0.0
   20.979200   -2.8986654356011D-01     0.0
   21.039200   -2.8988273245058D-01     0.0
   21.099200   -2.8989864763845D-01     0.0
   21.159200   -2.8991429450191D-01     0.0
   21.219200   -2.8992967829887D-01     0.0
   21.279200   -2.8994480416991D-01     0.0
   21.339200   -2.8995967714129D-01     0.0
   21.399200   -2.8997430212774D-01     0.0
   21.459200   -2.8998868393527D-01     0.0
   21.519200   -2.9000282726382D-01     0.0
   21.579200   -2.9001673670994D-01     0.0
   21.639200   -2.9003041676930D-01     0.0
   21.699200   -2.9004387183918D-01     0.0
   21.759200   -2.9005710622091D-01     0.0
   21.819200   -2.9007012412215D-01     0.0
   21.879200   -2.9008292965924D-01     0.0
   21.939200   -2.9009552685941D-01     0.0
   21.999200   -2.9010791966289D-01     0.0
   22.059200   -2.9012011192510D-01     0.0
   22.119200   -2.9013210741865D-01     0.0
   22.179200   -2.9014390983530D-01     0.0
   22.239200   -2.9015552278797D-01     0.0
   22.299200   -2.9016694981258D-01     0.0
   22.359200   -2.9017819436993D-01     0.0
   22.419200   -2.9018925984741D-01     0.0
   22.479200   -2.9020014956086D-01     0.0
   22.539200   -2.9021086675616D-01     0.0
   22.599200   -2.9022141461096D-01     0.0
   22.659200   -2.9023179623622D-01     0.0
   22.719200   -2.9024201467782D-01     0.0
   22.779200   -2.9025207291813D-01     0.0
   22.839200   -2.9026197387737D-01     0.0
   22.899200   -2.9027172041518D-01     0.0
   22.959200   -2.9028131533197D-01     0.0
   23.019200   -2.9029076137033D-01     0.0
   23.079200   -2.9030006121632D-01     0.0
   23.139200   -2.9030921750082D-01     0.0
   23.199200   -2.9031823280081D-01     0.0
   23.259200   -2.9032710964052D-01     0.0
   23.319200   -2.9033585049276D-01     0.0
   23.379200   -2.9034445778002D-01     0.0
   23.439200   -2.9035293387562D-01     0.0
   23.499200   -2.9036128110488D-01     0.0
   23.559200   -2.9036950174613D-01     0.0
   23.619200   -2.9037759803188D-01     0.0
   23.679200   -2.9038557214973D-01     0.0
   23.739200   -2.9039342624345D-01     0.0
   23.799200   -2.9040116241402D-01     0.0
   23.859200   -2.9040878272045D-01     0.0
   23.919200   -2.9041628918084D-01     0.0
   23.979200   -2.9042368377322D-01     0.0
   24.039200   -2.9043096843652D-01     0.0
   24.099200   -2.9043814507133D-01     0.0
   24.159200   -2.9044521554083D-01     0.0
   24.219200   -2.9045218167162D-01     0.0
   24.279200   -2.9045904525442D-01     0.0
   24.339200   -2.9046580804504D-01     0.0
   24.399200   -2.9047247176496D-01     0.0
   24.459200   -2.9047903810219D-01     0.0
   24.519200   -2.9048550871199D-01     0.0
   24.579200   -2.9049188521756D-01     0.0
   24.639200   -2.9049816921071D-01     0.0
   24.699200   -2.9050436225261D-01     0.0
   24.759200   -2.9051046587442D-01     0.0
   24.819200   -2.9051648157788D-01     0.0
   24.879200   -2.9052241083605D-01     0.0
   24.939200   -2.9052825509385D-01     0.0
   24.999200   -2.9053401576868D-01     0.0
   25.059200   -2.9053969425100D-01     0.0
   25.119200   -2.9054529190493D-01     0.0
   25.179200   -2.9055081006880D-01     0.0
   25.239200   -2.9055625005569D-01     0.0
   25.299200   -2.9056161315392D-01     0.0
   25.359200   -2.9056690062768D-01     0.0
   25.419200   -2.9057211371745D-01     0.0
   25.479200   -2.9057725364052D-01     0.0
   25.539200   -2.9058232159149D-01     0.0
   25.599200   -2.9058731874274D-01     0.0
   25.659200   -2.9059224624486D-01     0.0
   25.719200   -2.9059710522717D-01     0.0
   25.779200   -2.9060189679810D-01     0.0
   25.839200   -2.9060662204564D-01     0.0
   25.899200   -2.9061128203781D-01     0.0
   25.959200   -2.9061587782300D-01     0.0
   26.019200   -2.9062041043039D-01     0.0
   26.079200   -2.9062488087041D-01     0.0
   26.139200   -2.9062929013504D-01     0.0
   26.199200   -2.9063363919820D-01     0.0
   26.259200   -2.9063792901621D-01     0.0
   26.319200   -2.9064216052803D-01     0.0
   26.379200   -2.9064633465564D-01     0.0
   26.439200   -2.9065045230444D-01     0.0
   26.499200   -2.9065451436357D-01     0.0
   26.559200   -2.9065852170615D-01     0.0
   26.619200   -2.9066247518974D-01     0.0
   26.679200   -2.9066637565656D-01     0.0
   26.739200   -2.9067022393379D-01     0.0
   26.799200   -2.9067402083393D-01     0.0
   26.859200   -2.9067776715506D-01     0.0
   26.919200   -2.9068146368114D-01     0.0
   26.979200   -2.9068511118227D-01     0.0
   27.039200   -2.9068871041496D-01     0.0
   27.099200   -2.9069226212244D-01     0.0
   27.159200   -2.9069576703489D-01     0.0
   27.219200   -2.9069922586970D-01     0.0
   27.279200   -2.9070263933172D-01     0.0
   27.339200   -2.9070600811354D-01     0.0
   27.399200   -2.9070933289564D-01     0.0
   27.459200   -2.9071261434676D-01     0.0
   27.519200   -2.9071585312399D-01     0.0
   27.579200   -2.9071904987312D-01     0.0
   27.639200   -2.9072220522875D-01     0.0
   27.699200   -2.9072531981460D-01     0.0
   27.759200   -2.9072839424365D-01     0.0
   27.819200   -2.9073142911837D-01     0.0
   27.879200   -2.9073442503099D-01     0.0
   27.939200   -2.9073738256351D-01     0.0
   27.999200   -2.9074030228813D-01     0.0
   28.059200   -2.9074318476729D-01     0.0
   28.119200   -2.9074603055388D-01     0.0
   28.179200   -2.9074884019145D-01     0.0
   28.239200   -2.9075161421437D-01     0.0
   28.299200   -2.9075435314801D-01     0.0
   28.359200   -2.9075705750890D-01     0.0
   28.419200   -2.9075972780487D-01     0.0
   28.479200   -2.9076236453532D-01     0.0
   28.539200   -2.9076496819123D-01     0.0
   28.599200   -2.9076753925544D-01     0.0
   28.659200   -2.9077007820272D-01     0.0
   28.719200   -2.9077258550000D-01     0.0
   28.779200   -2.9077506160644D-01     0.0
   28.839200   -2.9077750697359D-01     0.0
   28.899200   -2.9077992204560D-01     0.0
   28.959200   -2.9078230725926D-01     0.0
   29.019200   -2.9078466304418D-01     0.0
   29.079200   -2.9078698982297D-01     0.0
   29.139200   -2.9078928801126D-01     0.0
   29.199200   -2.9079155801793D-01     0.0
   29.259200   -2.9079380024520D-01     0.0
   29.319200   -2.9079601508871D-01     0.0
   29.379200   -2.9079820293769D-01     0.0
   29.439200   -2.9080036417507D-01     0.0
   29.499200   -2.9080249917759D-01     0.0
   29.559200   -2.9080460831590D-01     0.0
   29.619200   -2.9080669195469D-01     0.0
   29.679200   -2.9080875045277D-01     0.0
   29.739200   -2.9081078416321D-01     0.0
   29.799200   -2.9081279343342D-01     0.0
   29.859200   -2.9081477860526D-01     0.0
   29.919200   -2.9081674001513D-01     0.0
   29.979200   -2.9081867799409D-01     0.0
   30.039200   -2.9082059286794D-01     0.0
   30.099200   -2.9082248495730D-01     0.0
   30.159200   -2.9082435457774D-01     0.0
   30.219200   -2.9082620203982D-01     0.0
   30.279200   -2.9082802764922D-01     0.0
   30.339200   -2.9082983170682D-01     0.0
   30.399200   -2.9083161450876D-01     0.0
   30.459200   -2.9083337634655D-01     0.0
   30.519200   -2.9083511750715D-01     0.0
   30.579200   -2.9083683827301D-01     0.0
   30.639200   -2.9083853892223D-01     0.0
   30.699200   -2.9084021972853D-01     0.0
   30.759200   -2.9084188096144D-01     0.0
   30.819200   -2.9084352288625D-01     0.0
   30.879200   -2.9084514576422D-01     0.0
   30.939200   -2.9084674985254D-01     0.0
   30.999200   -2.9084833540443D-01     0.0
   31.059200   -2.9084990266925D-01     0.0
   31.119200   -2.9085145189252D-01     0.0
   31.179200   -2.9085298331598D-01     0.0
   31.239200   -2.9085449717772D-01     0.0
   31.299200   -2.9085599371217D-01     0.0
   31.359200   -2.9085747315021D-01     0.0
   31.419200   -2.9085893571917D-01     0.0
   31.479200   -2.9086038164299D-01     0.0
   31.539200   -2.9086181114218D-01     0.0
   31.599200   -2.9086322443393D-01     0.0
   31.659200   -2.9086462173216D-01     0.0
   31.719200   -2.9086600324759D-01     0.0
   31.779200   -2.9086736918771D-01     0.0
   31.839200   -2.9086871975697D-01     0.0
   31.899200   -2.9087005515671D-01     0.0
   31.959200   -2.9087137558530D-01     0.0
   32.019200   -2.9087268123809D-01     0.0
   32.079200   -2.9087397230764D-01     0.0
   32.139200   -2.9087524898355D-01     0.0
   32.199200   -2.9087651145261D-01     0.0
   32.259200   -2.9087775989889D-01     0.0
   32.319200   -2.9087899450372D-01     0.0
   32.379200   -2.9088021544575D-01     0.0
   32.439200   -2.9088142290101D-01     0.0
   32.499200   -2.9088261704295D-01     0.0
   32.559200   -2.9088379804245D-01     0.0
   32.619200   -2.9088496606792D-01     0.0
   32.679200   -2.9088612128529D-01     0.0
   32.739200   -2.9088726385806D-01     0.0
   32.799200   -2.9088839394739D-01     0.0
   32.859200   -2.9088951171206D-01     0.0
   32.919200   -2.9089061730854D-01     0.0
   32.979200   -2.9089171089109D-01     0.0
   33.039200   -2.9089279261167D-01     0.0
   33.099200   -2.9089386262009D-01     0.0
   33.159200   -2.9089492106400D-01     0.0
   33.219200   -2.9089596808893D-01     0.0
   33.279200   -2.9089700383828D-01     0.0
   33.339200   -2.9089802845345D-01     0.0
   33.399200   -2.9089904207380D-01     0.0
   33.459200   -2.9090004483667D-01     0.0
   33.519200   -2.9090103687749D-01     0.0
   33.579200   -2.9090201832973D-01     0.0
   33.639200   -2.9090298932499D-01     0.0
   33.699200   -2.9090394999300D-01     0.0
   33.759200   -2.9090490046161D-01     0.0
   33.819200   -2.9090584085694D-01     0.0
   33.879200   -2.9090677130328D-01     0.0
   33.939200   -2.9090769192317D-01     0.0
   33.999200   -2.9090860283746D-01     0.0
   34.059200   -2.9090950416528D-01     0.0
   34.119200   -2.9091039602409D-01     0.0
   34.179200   -2.9091127852973D-01     0.0
   34.239200   -2.9091215179642D-01     0.0
   34.299200   -2.9091301593676D-01     0.0
   34.359200   -2.9091387106182D-01     0.0
   34.419200   -2.9091471728110D-01     0.0
   34.479200   -2.9091555470261D-01     0.0
   34.539200   -2.9091638343284D-01     0.0
   34.599200   -2.9091720357683D-01     0.0
   34.659200   -2.9091801523816D-01     0.0
   34.719200   -2.9091881851900D-01     0.0
   34.779200   -2.9091961352009D-01     0.0
   34.839200   -2.9092040034082D-01     0.0
   34.899200   -2.9092117907919D-01     0.0
   34.959200   -2.9092194983188D-01     0.0
   35.019200   -2.9092271269423D-01     0.0
   35.079200   -2.9092346776033D-01     0.0
   35.139200   -2.9092421512293D-01     0.0
   35.199200   -2.9092495487355D-01     0.0
   35.259200   -2.9092568710248D-01     0.0
   35.319200   -2.9092641189876D-01     0.0
   35.379200   -2.9092712935026D-01     0.0
   35.439200   -2.9092783954364D-01     0.0
   35.499200   -2.9092854256441D-01     0.0