
variables = "r", "B(r) ", "Uncertainty"
zone T = "State 1 B(r)   2p3rRe              "

    0.001200    1.0903024990328D+02     0.0
    0.007200    1.0903017987546D+02     0.0
    0.013200    1.0902981670690D+02     0.0
    0.019200    1.0902891611142D+02     0.0
    0.025200    1.0902723380396D+02     0.0
    0.031200    1.0902452550892D+02     0.0
    0.037200    1.0902054697373D+02     0.0
    0.043200    1.0901505398752D+02     0.0
    0.049200    1.0900780240492D+02     0.0
    0.055200    1.0899854817513D+02     0.0
    0.061200    1.0898704737599D+02     0.0
    0.067200    1.0897305625334D+02     0.0
    0.073200    1.0895633126544D+02     0.0
    0.079200    1.0893662913254D+02     0.0
    0.085200    1.0891370689164D+02     0.0
    0.091200    1.0888732195627D+02     0.0
    0.097200    1.0885723218143D+02     0.0
    0.103200    1.0882319593363D+02     0.0
    0.109200    1.0878497216592D+02     0.0
    0.115200    1.0874232049801D+02     0.0
    0.121200    1.0869500130141D+02     0.0
    0.127200    1.0864277578945D+02     0.0
    0.133200    1.0858540611236D+02     0.0
    0.139200    1.0852265545708D+02     0.0
    0.145200    1.0845428815210D+02     0.0
    0.151200    1.0838006977688D+02     0.0
    0.157200    1.0829976727615D+02     0.0
    0.163200    1.0821314907880D+02     0.0
    0.169200    1.0811998522133D+02     0.0
    0.175200    1.0802004747586D+02     0.0
    0.181200    1.0791310948252D+02     0.0
    0.187200    1.0779894688618D+02     0.0
    0.193200    1.0767733747741D+02     0.0
    0.199200    1.0754806133751D+02     0.0
    0.205200    1.0741090098763D+02     0.0
    0.211200    1.0726564154166D+02     0.0
    0.217200    1.0711207086298D+02     0.0
    0.223200    1.0694997972471D+02     0.0
    0.229200    1.0677916197351D+02     0.0
    0.235200    1.0659941469660D+02     0.0
    0.241200    1.0641053839202D+02     0.0
    0.247200    1.0621233714174D+02     0.0
    0.253200    1.0600461878765D+02     0.0
    0.259200    1.0578719511011D+02     0.0
    0.265200    1.0555988200885D+02     0.0
    0.271200    1.0532249968612D+02     0.0
    0.277200    1.0507487283179D+02     0.0
    0.283200    1.0481683081016D+02     0.0
    0.289200    1.0454820784829D+02     0.0
    0.295200    1.0426884322563D+02     0.0
    0.301200    1.0397858146457D+02     0.0
    0.307200    1.0367727252186D+02     0.0
    0.313200    1.0336477198038D+02     0.0
    0.319200    1.0304094124121D+02     0.0
    0.325200    1.0270564771553D+02     0.0
    0.331200    1.0235876501622D+02     0.0
    0.337200    1.0200017314871D+02     0.0
    0.343200    1.0162975870088D+02     0.0
    0.349200    1.0124741503164D+02     0.0
    0.355200    1.0085304245783D+02     0.0
    0.361200    1.0044654843927D+02     0.0
    0.367200    1.0002784776141D+02     0.0
    0.373200    9.9596862715380D+01     0.0
    0.379200    9.9153523275050D+01     0.0
    0.385200    9.8697767270785D+01     0.0
    0.391200    9.8229540559467D+01     0.0
    0.397200    9.7748797190492D+01     0.0
    0.403200    9.7255499567350D+01     0.0
    0.409200    9.6749618604435D+01     0.0
    0.415200    9.6231133878704D+01     0.0
    0.421200    9.5700033775834D+01     0.0
    0.427200    9.5156315630500D+01     0.0
    0.433200    9.4599985860407D+01     0.0
    0.439200    9.4031060093705D+01     0.0
    0.445200    9.3449563289429D+01     0.0
    0.451200    9.2855529850595D+01     0.0
    0.457200    9.2249003729595D+01     0.0
    0.463200    9.1630038525525D+01     0.0
    0.469200    9.0998697573108D+01     0.0
    0.475200    9.0355054022857D+01     0.0
    0.481200    8.9699190912140D+01     0.0
    0.487200    8.9031201226809D+01     0.0
    0.493200    8.8351187953083D+01     0.0
    0.499200    8.7659264119350D+01     0.0
    0.500000    8.7566114195835D+01  5.520D+01
    0.560000    8.0009247812659D+01  5.067D+01
    0.620000    7.1463007749778D+01  4.553D+01
    0.680000    6.2201088368330D+01  3.991D+01
    0.740000    5.2574249178737D+01  3.403D+01
    0.800000    4.2980824951895D+01  2.811D+01
    0.860000    3.3827715541715D+01  2.240D+01
    0.920000    2.5486931446974D+01  1.711D+01
    0.980000    1.8254432694441D+01  1.245D+01
    1.040000    1.2318363186584D+01  8.537D+00
    1.100000    7.7425436205253D+00  5.440D+00
    1.160000    4.4683580812983D+00  3.149D+00
    1.220000    2.3345190115536D+00  1.593D+00
    1.280000    1.1105200471716D+00  6.559D-01
    1.340000    5.3686326453938D-01  2.151D-01
    1.400000    3.6412400498879D-01  1.482D-01
    1.460000    3.8384966207277D-01  1.588D-01
    1.520000    4.4684003341446D-01  2.019D-01
    1.580000    4.6770172449850D-01  2.732D-01
    1.640000    4.1769600226402D-01  3.257D-01
    1.700000    3.0997647976022D-01  3.432D-01
    1.760000    1.8196102588300D-01  3.370D-01
    1.820000    7.8938042250502D-02  3.310D-01
    1.880000    4.1572169217592D-02  3.411D-01
    1.940000    9.8353809855231D-02  3.625D-01
    2.000000    2.6270697591107D-01  3.780D-01
    2.060000    5.3366432546634D-01  3.738D-01
    2.120000    8.9874002458023D-01  3.465D-01
    2.180000    1.3377409667802D+00  3.046D-01
    2.240000    1.8265728370680D+00  2.736D-01
    2.300000    2.3404645410100D+00  2.919D-01
    2.360000    2.8563543640059D+00  3.731D-01
    2.420000    3.3544111439836D+00  4.950D-01
    2.480000    3.8188003764270D+00  6.346D-01
    2.540000    4.2378660235044D+00  7.778D-01
    2.600000    4.6039079160853D+00  9.162D-01
    2.660000    4.9127141795931D+00  1.045D+00
    2.720000    5.1629748024390D+00  1.160D+00
    2.780000    5.3556671062871D+00  1.260D+00
    2.840000    5.4934723814871D+00  1.345D+00
    2.900000    5.5802577854202D+00  1.414D+00
    2.960000    5.6206391227032D+00  1.467D+00
    3.020000    5.6196275888032D+00  1.507D+00
    3.080000    5.5823557814204D+00  1.533D+00
    3.140000    5.5138740381296D+00  1.548D+00
    3.200000    5.4190063609192D+00  1.552D+00
    3.260000    5.3022549721801D+00  1.547D+00
    3.320000    5.1677432668857D+00  1.534D+00
    3.380000    5.0191881290670D+00  1.515D+00
    3.440000    4.8598939672156D+00  1.490D+00
    3.500000    4.6927622070983D+00  1.460D+00
    3.560000    4.5203112565085D+00  1.427D+00
    3.620000    4.3447030738857D+00  1.392D+00
    3.680000    4.1677734152443D+00  1.354D+00
    3.740000    3.9910636058536D+00  1.315D+00
    3.800000    3.8158523000826D+00  1.275D+00
    3.860000    3.6431861752344D+00  1.234D+00
    3.920000    3.4739088746518D+00  1.194D+00
    3.980000    3.3086877924779D+00  1.153D+00
    4.040000    3.1480384956561D+00  1.114D+00
    4.100000    2.9923467239368D+00  1.075D+00
    4.160000    2.8418880090750D+00  1.037D+00
    4.220000    2.6968450208600D+00  9.997D-01
    4.280000    2.5573227887720D+00  9.639D-01
    4.340000    2.4233619706935D+00  9.294D-01
    4.400000    2.2949503495118D+00  8.961D-01
    4.460000    2.1720327386370D+00  8.643D-01
    4.520000    2.0545194714779D+00  8.337D-01
    4.580000    1.9422936400080D+00  8.046D-01
    4.640000    1.8352172353635D+00  7.768D-01
    4.700000    1.7331363301149D+00  7.503D-01
    4.760000    1.6358854282742D+00  7.252D-01
    4.820000    1.5432910957899D+00  7.013D-01
    4.880000    1.4551749716046D+00  6.787D-01
    4.940000    1.3713562475275D+00  6.574D-01
    5.000000    1.2916536943133D+00  6.372D-01
    5.060000    1.2158873014910D+00  6.182D-01
    5.120000    1.1438795896372D+00  6.003D-01
    5.180000    1.0754566459105D+00  5.834D-01
    5.240000    1.0104489266856D+00  5.675D-01
    5.300000    9.4869186498996D-01  5.526D-01
    5.360000    8.9002631507080D-01  5.385D-01
    5.420000    8.3429886173426D-01  5.254D-01
    5.480000    7.8136201802557D-01  5.131D-01
    5.540000    7.3107433129319D-01  5.015D-01
    5.600000    6.8330041463494D-01  4.907D-01
    5.660000    6.3791091810171D-01  4.806D-01
    5.720000    5.9478245178122D-01  4.711D-01
    5.780000    5.5379747095344D-01  4.623D-01
    5.840000    5.1484413185756D-01  4.540D-01
    5.900000    4.7781612520032D-01  4.463D-01
    5.960000    4.4261249333509D-01  4.391D-01
    6.020000    4.0913743601971D-01  4.324D-01
    6.080000    3.7730010879531D-01  4.261D-01
    6.140000    3.4701441729527D-01  4.203D-01
    6.200000    3.1819881017368D-01  4.149D-01
    6.260000    2.9077607282104D-01  4.098D-01
    6.320000    2.6467312359617D-01  4.050D-01
    6.380000    2.3982081393498D-01  4.006D-01
    6.440000    2.1615373338984D-01  3.965D-01
    6.500000    1.9361002039651D-01  3.926D-01
    6.560000    1.7213117935373D-01  3.890D-01
    6.620000    1.5166190442385D-01  3.857D-01
    6.680000    1.3214991031980D-01  3.826D-01
    6.740000    1.1354577022434D-01  3.797D-01
    6.800000    9.5802760892603D-02  3.769D-01
    6.860000    7.8876714911550D-02  3.744D-01
    6.920000    6.2725880028396D-02  3.720D-01
    6.980000    4.7310785412266D-02  3.698D-01
    7.040000    3.2594114675443D-02  3.677D-01
    7.100000    1.8540585452781D-02  3.658D-01
    7.160000    5.1168353172655D-03  3.640D-01
    7.220000   -7.7086862047445D-03  3.623D-01
    7.280000   -1.9965819764633D-02  3.607D-01
    7.340000   -3.1682792719408D-02  3.592D-01
    7.400000   -4.2886310309152D-02  3.578D-01
    7.460000   -5.3601641735192D-02  3.565D-01
    7.520000   -6.3852701387532D-02  3.553D-01
    7.580000   -7.3662125464399D-02  3.541D-01
    7.640000   -8.3051344221470D-02  3.531D-01
    7.700000   -9.2040650080154D-02  3.520D-01
    7.760000   -1.0064926181716D-01  3.511D-01
    7.820000   -1.0889538504868D-01  3.502D-01
    7.880000   -1.1679626921399D-01  3.493D-01
    7.940000   -1.2436826125426D-01  3.485D-01
    8.000000   -1.3162685617317D-01  3.478D-01
    8.060000   -1.3858674465775D-01  3.471D-01
    8.120000   -1.4526185792815D-01  3.464D-01
    8.180000   -1.5166540997672D-01  3.458D-01
    8.240000   -1.5780993734895D-01  3.452D-01
    8.300000   -1.6370733660993D-01  3.446D-01
    8.360000   -1.6936889963232D-01  3.441D-01
    8.420000   -1.7480534683479D-01  3.436D-01
    8.480000   -1.8002685849189D-01  3.431D-01
    8.540000   -1.8504310423011D-01  3.427D-01
    8.600000   -1.8986327081763D-01  3.423D-01
    8.660000   -1.9449608834978D-01  3.419D-01
    8.720000   -1.9894985492555D-01  3.415D-01
    8.780000   -2.0323245990520D-01  3.411D-01
    8.840000   -2.0735140583378D-01  3.408D-01
    8.900000   -2.1131382910991D-01  3.404D-01
    8.960000   -2.1512651947503D-01  3.401D-01
    9.020000   -2.1879593839310D-01  3.398D-01
    9.080000   -2.2232823638693D-01  3.395D-01
    9.140000   -2.2572926939344D-01  3.393D-01
    9.200000   -2.2900461419597D-01  3.390D-01
    9.260000   -2.3215958298828D-01  3.388D-01
    9.320000   -2.3519923712209D-01  3.386D-01
    9.380000   -2.3812840008608D-01  3.383D-01
    9.440000   -2.4095166976199D-01  3.381D-01
    9.500000   -2.4367343000011D-01  3.379D-01
    9.560000   -2.4629786155448D-01  3.377D-01
    9.620000   -2.4882895241522D-01  3.375D-01
    9.680000   -2.5127050757309D-01  3.374D-01
    9.740000   -2.5362615824980D-01  3.372D-01
    9.800000   -2.5589937062474D-01  3.370D-01
    9.860000   -2.5809345408768D-01  3.369D-01
    9.920000   -2.6021156904453D-01  3.367D-01
    9.980000   -2.6225673430259D-01  3.366D-01
   10.059200   -2.6484952174782D-01     0.0
   10.119200   -2.6673633528483D-01     0.0
   10.179200   -2.6855929228214D-01     0.0
   10.239200   -2.7032087554310D-01     0.0
   10.299200   -2.7202345941498D-01     0.0
   10.359200   -2.7366931501770D-01     0.0
   10.419200   -2.7526061519840D-01     0.0
   10.479200   -2.7679943922747D-01     0.0
   10.539200   -2.7828777725051D-01     0.0
   10.599200   -2.7972753450972D-01     0.0
   10.659200   -2.8112053534742D-01     0.0
   10.719200   -2.8246852700433D-01     0.0
   10.779200   -2.8377318322321D-01     0.0
   10.839200   -2.8503610766910D-01     0.0
   10.899200   -2.8625883717591D-01     0.0
   10.959200   -2.8744284482907D-01     0.0
   11.019200   -2.8858954289298D-01     0.0
   11.079200   -2.8970028559183D-01     0.0
   11.139200   -2.9077637175149D-01     0.0
   11.199200   -2.9181904731021D-01     0.0
   11.259200   -2.9282950770497D-01     0.0
   11.319200   -2.9380890014022D-01     0.0
   11.379200   -2.9475832574523D-01     0.0
   11.439200   -2.9567884162587D-01     0.0
   11.499200   -2.9657146281667D-01     0.0
   11.559200   -2.9743716413804D-01     0.0
   11.619200   -2.9827688196392D-01     0.0
   11.679200   -2.9909151590430D-01     0.0
   11.739200   -2.9988193040728D-01     0.0
   11.799200   -3.0064895628463D-01     0.0
   11.859200   -3.0139339216485D-01     0.0
   11.919200   -3.0211600587765D-01     0.0
   11.979200   -3.0281753577297D-01     0.0
   12.039200   -3.0349869197824D-01     0.0
   12.099200   -3.0416015759691D-01     0.0
   12.159200   -3.0480258985113D-01     0.0
   12.219200   -3.0542662117148D-01     0.0
   12.279200   -3.0603286023637D-01     0.0
   12.339200   -3.0662189296379D-01     0.0
   12.399200   -3.0719428345739D-01     0.0
   12.459200   -3.0775057490970D-01     0.0
   12.519200   -3.0829129046419D-01     0.0
   12.579200   -3.0881693403822D-01     0.0
   12.639200   -3.0932799110916D-01     0.0
   12.699200   -3.0982492946505D-01     0.0
   12.759200   -3.1030819992177D-01     0.0
   12.819200   -3.1077823700827D-01     0.0
   12.879200   -3.1123545962149D-01     0.0
   12.939200   -3.1168027165226D-01     0.0
   12.999200   -3.1211306258372D-01     0.0
   13.059200   -3.1253420806352D-01     0.0
   13.119200   -3.1294407045108D-01     0.0
   13.179200   -3.1334299934096D-01     0.0
   13.239200   -3.1373133206375D-01     0.0
   13.299200   -3.1410939416521D-01     0.0
   13.359200   -3.1447749986485D-01     0.0
   13.419200   -3.1483595249498D-01     0.0
   13.479200   -3.1518504492099D-01     0.0
   13.539200   -3.1552505994375D-01     0.0
   13.599200   -3.1585627068504D-01     0.0
   13.659200   -3.1617894095679D-01     0.0
   13.719200   -3.1649332561472D-01     0.0
   13.779200   -3.1679967089737D-01     0.0
   13.839200   -3.1709821475073D-01     0.0
   13.899200   -3.1738918713971D-01     0.0
   13.959200   -3.1767281034659D-01     0.0
   14.019200   -3.1794929925724D-01     0.0
   14.079200   -3.1821886163545D-01     0.0
   14.139200   -3.1848169838633D-01     0.0
   14.199200   -3.1873800380876D-01     0.0
   14.259200   -3.1898796583764D-01     0.0
   14.319200   -3.1923176627656D-01     0.0
   14.379200   -3.1946958102082D-01     0.0
   14.439200   -3.1970158027168D-01     0.0
   14.499200   -3.1992792874205D-01     0.0
   14.559200   -3.2014878585396D-01     0.0
   14.619200   -3.2036430592815D-01     0.0
   14.679200   -3.2057463836631D-01     0.0
   14.739200   -3.2077992782612D-01     0.0
   14.799200   -3.2098031438920D-01     0.0
   14.859200   -3.2117593372288D-01     0.0
   14.919200   -3.2136691723537D-01     0.0
   14.979200   -3.2155339222512D-01     0.0
   15.039200   -3.2173548202421D-01     0.0
   15.099200   -3.2191330613639D-01     0.0
   15.159200   -3.2208698036978D-01     0.0
   15.219200   -3.2225661696444D-01     0.0
   15.279200   -3.2242232471520D-01     0.0
   15.339200   -3.2258420908964D-01     0.0
   15.399200   -3.2274237234193D-01     0.0
   15.459200   -3.2289691362199D-01     0.0
   15.519200   -3.2304792908082D-01     0.0
   15.579200   -3.2319551197186D-01     0.0
   15.639200   -3.2333975274851D-01     0.0
   15.699200   -3.2348073915802D-01     0.0
   15.759200   -3.2361855633198D-01     0.0
   15.819200   -3.2375328687341D-01     0.0
   15.879200   -3.2388501094070D-01     0.0
   15.939200   -3.2401380632845D-01     0.0
   15.999200   -3.2413974854528D-01     0.0
   16.059200   -3.2426291088906D-01     0.0
   16.119200   -3.2438336451905D-01     0.0
   16.179200   -3.2450117852583D-01     0.0
   16.239200   -3.2461641999832D-01     0.0
   16.299200   -3.2472915408878D-01     0.0
   16.359200   -3.2483944407515D-01     0.0
   16.419200   -3.2494735142143D-01     0.0
   16.479200   -3.2505293583575D-01     0.0
   16.539200   -3.2515625532645D-01     0.0
   16.599200   -3.2525736625623D-01     0.0
   16.659200   -3.2535632339421D-01     0.0
   16.719200   -3.2545317996652D-01     0.0
   16.779200   -3.2554798770468D-01     0.0
   16.839200   -3.2564079689268D-01     0.0
   16.899200   -3.2573165641221D-01     0.0
   16.959200   -3.2582061378641D-01     0.0
   17.019200   -3.2590771522208D-01     0.0
   17.079200   -3.2599300565045D-01     0.0
   17.139200   -3.2607652876658D-01     0.0
   17.199200   -3.2615832706742D-01     0.0
   17.259200   -3.2623844188845D-01     0.0
   17.319200   -3.2631691343934D-01     0.0
   17.379200   -3.2639378083813D-01     0.0
   17.439200   -3.2646908214439D-01     0.0
   17.499200   -3.2654285439133D-01     0.0
   17.559200   -3.2661513361672D-01     0.0
   17.619200   -3.2668595489276D-01     0.0
   17.679200   -3.2675535235514D-01     0.0
   17.739200   -3.2682335923098D-01     0.0
   17.799200   -3.2689000786575D-01     0.0
   17.859200   -3.2695532974971D-01     0.0
   17.919200   -3.2701935554297D-01     0.0
   17.979200   -3.2708211510009D-01     0.0
   18.039200   -3.2714363749373D-01     0.0
   18.099200   -3.2720395103761D-01     0.0
   18.159200   -3.2726308330861D-01     0.0
   18.219200   -3.2732106116828D-01     0.0
   18.279200   -3.2737791078359D-01     0.0
   18.339200   -3.2743365764704D-01     0.0
   18.399200   -3.2748832659609D-01     0.0
   18.459200   -3.2754194183205D-01     0.0
   18.519200   -3.2759452693823D-01     0.0
   18.579200   -3.2764610489770D-01     0.0
   18.639200   -3.2769669811034D-01     0.0
   18.699200   -3.2774632840936D-01     0.0
   18.759200   -3.2779501707749D-01     0.0
   18.819200   -3.2784278486235D-01     0.0
   18.879200   -3.2788965199161D-01     0.0
   18.939200   -3.2793563818754D-01     0.0
   18.999200   -3.2798076268118D-01     0.0
   19.059200   -3.2802504422601D-01     0.0
   19.119200   -3.2806850111121D-01     0.0
   19.179200   -3.2811115117459D-01     0.0
   19.239200   -3.2815301181500D-01     0.0
   19.299200   -3.2819410000445D-01     0.0
   19.359200   -3.2823443229984D-01     0.0
   19.419200   -3.2827402485436D-01     0.0
   19.479200   -3.2831289342840D-01     0.0
   19.539200   -3.2835105340037D-01     0.0
   19.599200   -3.2838851977702D-01     0.0
   19.659200   -3.2842530720349D-01     0.0
   19.719200   -3.2846142997306D-01     0.0
   19.779200   -3.2849690203665D-01     0.0
   19.839200   -3.2853173701197D-01     0.0
   19.899200   -3.2856594819246D-01     0.0
   19.959200   -3.2859954855592D-01     0.0
   20.019200   -3.2863255077290D-01     0.0
   20.079200   -3.2866496721490D-01     0.0
   20.139200   -3.2869680996215D-01     0.0
   20.199200   -3.2872809081146D-01     0.0
   20.259200   -3.2875882128352D-01     0.0
   20.319200   -3.2878901263023D-01     0.0
   20.379200   -3.2881867584170D-01     0.0
   20.439200   -3.2884782165300D-01     0.0
   20.499200   -3.2887646055096D-01     0.0
   20.559200   -3.2890460278042D-01     0.0
   20.619200   -3.2893225835058D-01     0.0
   20.679200   -3.2895943704110D-01     0.0
   20.739200   -3.2898614840786D-01     0.0
   20.799200   -3.2901240178887D-01     0.0
   20.859200   -3.2903820630972D-01     0.0
   20.919200   -3.2906357088900D-01     0.0
   20.979200   -3.2908850424365D-01     0.0
   21.039200   -3.2911301489392D-01     0.0
   21.099200   -3.2913711116853D-01     0.0
   21.159200   -3.2916080120929D-01     0.0
   21.219200   -3.2918409297599D-01     0.0
   21.279200   -3.2920699425077D-01     0.0
   21.339200   -3.2922951264276D-01     0.0
   21.399200   -3.2925165559224D-01     0.0
   21.459200   -3.2927343037489D-01     0.0
   21.519200   -3.2929484410589D-01     0.0
   21.579200   -3.2931590374387D-01     0.0
   21.639200   -3.2933661609474D-01     0.0
   21.699200   -3.2935698781550D-01     0.0
   21.759200   -3.2937702541788D-01     0.0
   21.819200   -3.2939673527185D-01     0.0
   21.879200   -3.2941612360909D-01     0.0
   21.939200   -3.2943519652642D-01     0.0
   21.999200   -3.2945395998898D-01     0.0
   22.059200   -3.2947241983347D-01     0.0
   22.119200   -3.2949058177126D-01     0.0
   22.179200   -3.2950845139138D-01     0.0
   22.239200   -3.2952603416342D-01     0.0
   22.299200   -3.2954333544047D-01     0.0
   22.359200   -3.2956036046187D-01     0.0
   22.419200   -3.2957711435588D-01     0.0
   22.479200   -3.2959360214237D-01     0.0
   22.539200   -3.2960982873539D-01     0.0
   22.599200   -3.2962579894564D-01     0.0
   22.659200   -3.2964151748287D-01     0.0
   22.719200   -3.2965698895835D-01     0.0
   22.779200   -3.2967221788716D-01     0.0
   22.839200   -3.2968720869032D-01     0.0
   22.899200   -3.2970196569715D-01     0.0
   22.959200   -3.2971649314727D-01     0.0
   23.019200   -3.2973079519281D-01     0.0
   23.079200   -3.2974487590030D-01     0.0
   23.139200   -3.2975873925276D-01     0.0
   23.199200   -3.2977238915156D-01     0.0
   23.259200   -3.2978582941826D-01     0.0
   23.319200   -3.2979906379659D-01     0.0
   23.379200   -3.2981209595405D-01     0.0
   23.439200   -3.2982492948376D-01     0.0
   23.499200   -3.2983756790614D-01     0.0
   23.559200   -3.2985001467047D-01     0.0
   23.619200   -3.2986227315669D-01     0.0
   23.679200   -3.2987434667672D-01     0.0
   23.739200   -3.2988623847618D-01     0.0
   23.799200   -3.2989795173583D-01     0.0
   23.859200   -3.2990948957300D-01     0.0
   23.919200   -3.2992085504296D-01     0.0
   23.979200   -3.2993205114045D-01     0.0
   24.039200   -3.2994308080090D-01     0.0
   24.099200   -3.2995394690179D-01     0.0
   24.159200   -3.2996465226389D-01     0.0
   24.219200   -3.2997519965266D-01     0.0
   24.279200   -3.2998559177921D-01     0.0
   24.339200   -3.2999583130176D-01     0.0
   24.399200   -3.3000592082664D-01     0.0
   24.459200   -3.3001586290944D-01     0.0
   24.519200   -3.3002566005622D-01     0.0
   24.579200   -3.3003531472446D-01     0.0
   24.639200   -3.3004482932417D-01     0.0
   24.699200   -3.3005420621890D-01     0.0
   24.759200   -3.3006344772683D-01     0.0
   24.819200   -3.3007255612160D-01     0.0
   24.879200   -3.3008153363340D-01     0.0
   24.939200   -3.3009038244982D-01     0.0
   24.999200   -3.3009910471681D-01     0.0
   25.059200   -3.3010770253952D-01     0.0
   25.119200   -3.3011617798322D-01     0.0
   25.179200   -3.3012453307416D-01     0.0
   25.239200   -3.3013276980032D-01     0.0
   25.299200   -3.3014089011226D-01     0.0
   25.359200   -3.3014889592392D-01     0.0
   25.419200   -3.3015678911343D-01     0.0
   25.479200   -3.3016457152376D-01     0.0
   25.539200   -3.3017224496356D-01     0.0
   25.599200   -3.3017981120780D-01     0.0
   25.659200   -3.3018727199852D-01     0.0
   25.719200   -3.3019462904548D-01     0.0
   25.779200   -3.3020188402691D-01     0.0
   25.839200   -3.3020903859001D-01     0.0
   25.899200   -3.3021609435179D-01     0.0
   25.959200   -3.3022305289952D-01     0.0
   26.019200   -3.3022991579143D-01     0.0
   26.079200   -3.3023668455729D-01     0.0
   26.139200   -3.3024336069901D-01     0.0
   26.199200   -3.3024994569112D-01     0.0
   26.259200   -3.3025644098150D-01     0.0
   26.319200   -3.3026284799175D-01     0.0
   26.379200   -3.3026916811782D-01     0.0
   26.439200   -3.3027540273047D-01     0.0
   26.499200   -3.3028155317588D-01     0.0
   26.559200   -3.3028762077601D-01     0.0
   26.619200   -3.3029360682921D-01     0.0
   26.679200   -3.3029951261064D-01     0.0
   26.739200   -3.3030533937266D-01     0.0
   26.799200   -3.3031108834543D-01     0.0
   26.859200   -3.3031676073730D-01     0.0
   26.919200   -3.3032235773518D-01     0.0
   26.979200   -3.3032788050503D-01     0.0
   27.039200   -3.3033333019226D-01     0.0
   27.099200   -3.3033870792214D-01     0.0
   27.159200   -3.3034401480018D-01     0.0
   27.219200   -3.3034925191255D-01     0.0
   27.279200   -3.3035442032643D-01     0.0
   27.339200   -3.3035952109041D-01     0.0
   27.399200   -3.3036455523480D-01     0.0
   27.459200   -3.3036952377206D-01     0.0
   27.519200   -3.3037442769709D-01     0.0
   27.579200   -3.3037926798764D-01     0.0
   27.639200   -3.3038404560451D-01     0.0
   27.699200   -3.3038876149207D-01     0.0
   27.759200   -3.3039341657837D-01     0.0
   27.819200   -3.3039801177563D-01     0.0
   27.879200   -3.3040254798045D-01     0.0
   27.939200   -3.3040702607406D-01     0.0
   27.999200   -3.3041144692280D-01     0.0
   28.059200   -3.3041581137821D-01     0.0
   28.119200   -3.3042012027742D-01     0.0
   28.179200   -3.3042437444338D-01     0.0
   28.239200   -3.3042857468517D-01     0.0
   28.299200   -3.3043272179822D-01     0.0
   28.359200   -3.3043681656458D-01     0.0
   28.419200   -3.3044085975318D-01     0.0
   28.479200   -3.3044485212009D-01     0.0
   28.539200   -3.3044879440871D-01     0.0
   28.599200   -3.3045268735008D-01     0.0
   28.659200   -3.3045653166305D-01     0.0
   28.719200   -3.3046032805456D-01     0.0
   28.779200   -3.3046407721983D-01     0.0
   28.839200   -3.3046777984252D-01     0.0
   28.899200   -3.3047143659511D-01     0.0
   28.959200   -3.3047504813893D-01     0.0
   29.019200   -3.3047861512446D-01     0.0
   29.079200   -3.3048213819152D-01     0.0
   29.139200   -3.3048561796943D-01     0.0
   29.199200   -3.3048905507726D-01     0.0
   29.259200   -3.3049245012399D-01     0.0
   29.319200   -3.3049580370866D-01     0.0
   29.379200   -3.3049911642060D-01     0.0
   29.439200   -3.3050238883957D-01     0.0
   29.499200   -3.3050562153601D-01     0.0
   29.559200   -3.3050881507110D-01     0.0
   29.619200   -3.3051196999700D-01     0.0
   29.679200   -3.3051508685699D-01     0.0
   29.739200   -3.3051816618564D-01     0.0
   29.799200   -3.3052120850895D-01     0.0
   29.859200   -3.3052421434454D-01     0.0
   29.919200   -3.3052718420174D-01     0.0
   29.979200   -3.3053011858179D-01     0.0
   30.039200   -3.3053301797799D-01     0.0
   30.099200   -3.3053588287579D-01     0.0
   30.159200   -3.3053871375298D-01     0.0
   30.219200   -3.3054151107978D-01     0.0
   30.279200   -3.3054427531900D-01     0.0
   30.339200   -3.3054700692622D-01     0.0
   30.399200   -3.3054970634980D-01     0.0
   30.459200   -3.3055237403114D-01     0.0
   30.519200   -3.3055501040470D-01     0.0
   30.579200   -3.3055761589814D-01     0.0
   30.639200   -3.3056019093251D-01     0.0
   30.699200   -3.3056273592229D-01     0.0
   30.759200   -3.3056525127553D-01     0.0
   30.819200   -3.3056773739393D-01     0.0
   30.879200   -3.3057019467305D-01     0.0
   30.939200   -3.3057262350230D-01     0.0
   30.999200   -3.3057502426508D-01     0.0
   31.059200   -3.3057739733895D-01     0.0
   31.119200   -3.3057974309564D-01     0.0
   31.179200   -3.3058206190118D-01     0.0
   31.239200   -3.3058435411605D-01     0.0
   31.299200   -3.3058662009520D-01     0.0
   31.359200   -3.3058886018820D-01     0.0
   31.419200   -3.3059107473927D-01     0.0
   31.479200   -3.3059326408746D-01     0.0
   31.539200   -3.3059542856665D-01     0.0
   31.599200   -3.3059756850568D-01     0.0
   31.659200   -3.3059968422845D-01     0.0
   31.719200   -3.3060177605401D-01     0.0
   31.779200   -3.3060384429653D-01     0.0
   31.839200   -3.3060588926555D-01     0.0
   31.899200   -3.3060791126595D-01     0.0
   31.959200   -3.3060991059805D-01     0.0
   32.019200   -3.3061188755765D-01     0.0
   32.079200   -3.3061384243629D-01     0.0
   32.139200   -3.3061577552105D-01     0.0
   32.199200   -3.3061768709476D-01     0.0
   32.259200   -3.3061957743611D-01     0.0
   32.319200   -3.3062144681967D-01     0.0
   32.379200   -3.3062329551590D-01     0.0
   32.439200   -3.3062512379136D-01     0.0
   32.499200   -3.3062693190865D-01     0.0
   32.559200   -3.3062872012653D-01     0.0
   32.619200   -3.3063048869995D-01     0.0
   32.679200   -3.3063223788018D-01     0.0
   32.739200   -3.3063396791477D-01     0.0
   32.799200   -3.3063567904772D-01     0.0
   32.859200   -3.3063737151945D-01     0.0
   32.919200   -3.3063904556688D-01     0.0
   32.979200   -3.3064070142357D-01     0.0
   33.039200   -3.3064233931960D-01     0.0
   33.099200   -3.3064395948180D-01     0.0
   33.159200   -3.3064556213374D-01     0.0
   33.219200   -3.3064714749575D-01     0.0
   33.279200   -3.3064871578497D-01     0.0
   33.339200   -3.3065026721549D-01     0.0
   33.399200   -3.3065180199831D-01     0.0
   33.459200   -3.3065332034139D-01     0.0
   33.519200   -3.3065482244979D-01     0.0
   33.579200   -3.3065630852558D-01     0.0
   33.639200   -3.3065777876804D-01     0.0
   33.699200   -3.3065923337356D-01     0.0
   33.759200   -3.3066067253576D-01     0.0
   33.819200   -3.3066209644559D-01     0.0
   33.879200   -3.3066350529123D-01     0.0
   33.939200   -3.3066489925823D-01     0.0
   33.999200   -3.3066627852956D-01     0.0
   34.059200   -3.3066764328560D-01     0.0
   34.119200   -3.3066899370421D-01     0.0
   34.179200   -3.3067032996077D-01     0.0
   34.239200   -3.3067165222823D-01     0.0
   34.299200   -3.3067296067708D-01     0.0
   34.359200   -3.3067425547550D-01     0.0
   34.419200   -3.3067553678928D-01     0.0
   34.479200   -3.3067680478195D-01     0.0
   34.539200   -3.3067805961476D-01     0.0
   34.599200   -3.3067930144676D-01     0.0
   34.659200   -3.3068053043477D-01     0.0
   34.719200   -3.3068174673349D-01     0.0
   34.779200   -3.3068295049547D-01     0.0
   34.839200   -3.3068414187117D-01     0.0
   34.899200   -3.3068532100900D-01     0.0
   34.959200   -3.3068648805532D-01     0.0
   35.019200   -3.3068764315452D-01     0.0
   35.079200   -3.3068878644903D-01     0.0
   35.139200   -3.3068991807931D-01     0.0
   35.199200   -3.3069103818391D-01     0.0
   35.259200   -3.3069214689957D-01     0.0
   35.319200   -3.3069324436109D-01     0.0
   35.379200   -3.3069433070151D-01     0.0
   35.439200   -3.3069540605207D-01     0.0
   35.499200   -3.3069647054220D-01     0.0